18
	Energy:      -3.5609440
C          0.03387       -1.45762        0.22578
C         -1.24540       -0.75814       -0.22579
C         -1.27927        0.69948        0.22577
C         -0.03387        1.45762       -0.22578
C          1.24540        0.75814        0.22579
C          1.27927       -0.69948       -0.22577
H          0.03584       -1.54285        1.31946
H          0.05757       -2.47754       -0.17419
H         -1.31821       -0.80247       -1.31947
H         -2.11683       -1.28863        0.17417
H         -2.17439        1.18891       -0.17421
H         -1.35408        0.74038        1.31945
H         -0.03584        1.54285       -1.31946
H         -0.05757        2.47754        0.17419
H          2.11683        1.28863       -0.17417
H          1.31821        0.80247        1.31947
H          2.17439       -1.18891        0.17421
H          1.35408       -0.74038       -1.31945
