6
	Energy:      -6.6085236
O         -2.03593       -0.57709        1.50146
H         -2.69339       -0.00879        1.92917
H         -1.32622        0.07080        1.29466
O         -0.22626        1.44238        1.04249
H          0.58366        1.62621        1.54868
H         -0.03559        1.84361        0.17714
